[ System ]
   1    2    3    4    5    6    7    8    9   10   11   12   13   14   15
  16   17   18   19   20   21   22   23   24   25   26   27   28   29   30
  31   32   33   34   35   36   37   38   39   40   41   42   43   44   45
  46   47   48   49   50   51   52   53   54   55   56   57   58   59   60
  61   62   63   64   65   66   67   68   69   70   71   72   73   74   75
  76   77   78   79   80   81   82   83   84   85   86   87   88   89   90
  91   92   93   94   95   96   97   98   99  100  101  102  103  104  105
 106  107  108  109  110  111  112  113  114  115  116  117  118  119  120
 121  122  123  124  125  126  127  128  129  130  131  132  133  134  135
 136  137  138  139  140  141  142  143  144  145  146  147  148  149  150
 151  152  153  154  155  156  157  158  159  160  161  162  163  164  165
 166  167  168  169  170  171  172  173  174  175  176  177  178  179  180
 181  182  183  184  185  186  187  188  189  190  191  192  193  194  195
 196  197  198  199  200  201  202  203  204  205  206  207  208  209  210
 211  212  213  214  215  216  217  218  219  220  221  222  223  224  225
 226  227  228  229  230  231  232  233  234  235  236  237  238  239  240
 241  242  243  244  245  246  247  248  249  250  251  252  253  254  255
 256  257  258  259  260  261  262  263  264  265  266  267  268  269  270
 271  272  273  274  275  276  277  278  279  280  281  282  283  284  285
 286  287  288  289  290  291  292  293  294  295  296  297  298  299  300
 301  302  303  304  305  306  307  308  309  310  311  312  313  314  315
 316  317  318  319  320  321  322  323  324  325  326  327  328  329  330
 331  332  333  334  335  336  337  338  339  340  341  342  343  344  345
 346  347  348  349  350  351  352  353  354  355  356  357  358  359  360
 361  362  363  364  365  366  367  368  369  370  371  372  373  374  375
 376  377  378  379  380  381  382  383  384  385  386  387  388  389  390
 391  392  393  394  395  396  397  398  399  400  401  402  403  404  405
 406  407  408  409  410  411  412  413  414  415  416  417  418  419  420
 421  422  423  424  425  426  427  428  429  430  431  432  433  434  435
 436  437  438  439  440  441  442  443  444  445  446  447  448  449  450
 451  452  453  454  455  456  457  458  459  460  461  462  463  464  465
 466  467  468  469  470  471  472  473  474  475  476  477  478  479  480
 481  482  483  484  485  486  487  488  489  490  491  492  493  494  495
 496  497  498  499  500  501  502  503  504  505  506  507  508  509  510
 511  512  513  514  515  516  517  518  519  520  521  522  523  524  525
 526  527  528  529  530  531  532  533  534  535  536  537  538  539  540
 541  542  543  544  545  546  547  548  549  550  551  552  553  554  555
 556  557  558  559  560  561  562  563  564  565  566  567  568  569  570
 571  572  573  574  575  576  577  578  579  580  581  582  583  584  585
 586  587  588  589  590  591  592  593  594  595  596  597  598  599  600
 601  602  603  604  605  606  607  608  609  610  611  612  613  614  615
 616  617  618  619  620  621  622  623  624  625  626  627  628  629  630
 631  632  633  634  635  636  637  638  639  640  641  642  643  644  645
 646  647  648  649  650  651  652  653  654  655  656  657  658  659  660
 661  662  663  664  665  666  667  668  669  670  671  672  673  674  675
 676  677  678  679  680  681  682  683  684  685  686  687  688  689  690
 691  692  693  694  695  696  697  698  699  700  701  702  703  704  705
 706  707  708  709  710  711  712  713  714  715  716  717  718  719  720
 721  722  723  724  725  726  727  728  729  730  731  732  733  734  735
 736  737  738  739  740  741  742  743  744  745  746  747  748  749  750
 751  752  753  754  755  756  757  758  759  760  761  762  763  764  765
 766  767  768  769  770  771  772  773  774  775  776  777  778  779  780
 781  782  783  784  785  786  787  788  789  790  791  792  793  794  795
 796  797  798  799  800  801  802  803  804  805  806  807  808  809  810
 811  812  813  814  815  816  817  818  819  820  821  822  823  824  825
 826  827  828  829  830  831  832  833  834  835  836  837  838  839  840
 841  842  843  844  845  846  847  848  849  850  851  852  853  854  855
 856  857  858  859  860  861  862  863  864  865  866  867  868  869  870
 871  872  873  874  875  876  877  878  879  880  881  882  883  884  885
 886  887  888  889  890  891  892  893  894  895  896  897  898  899  900
 901  902  903  904  905  906  907  908  909  910  911  912  913  914  915
 916  917  918  919  920  921  922  923  924  925  926  927  928  929  930
 931  932  933  934  935  936  937  938  939  940  941  942  943  944  945
 946  947  948  949  950  951  952  953  954  955  956  957  958  959  960
 961  962  963  964  965  966  967  968  969  970  971  972  973  974  975
 976  977  978  979  980  981  982  983  984  985  986  987  988  989  990
 991  992  993  994  995  996  997  998  999 1000 1001 1002 1003 1004 1005
1006 1007 1008 1009 1010 1011 1012 1013 1014 1015 1016 1017 1018 1019 1020
1021 1022 1023 1024 1025 1026 1027 1028 1029 1030 1031 1032 1033 1034 1035
1036 1037 1038 1039 1040 1041 1042 1043 1044 1045 1046 1047 1048 1049 1050
1051 1052 1053 1054 1055 1056 1057 1058 1059 1060 1061 1062 1063 1064 1065
1066 1067 1068 1069 1070 1071 1072 1073 1074 1075 1076 1077 1078 1079 1080
1081 1082 1083 1084 1085 1086 1087 1088 1089 1090 1091 1092 1093 1094 1095
1096 1097 1098 1099 1100 1101 1102 1103 1104 1105 1106 1107 1108 1109 1110
1111 1112 1113 1114 1115 1116 1117 1118 1119 1120 1121 1122 1123 1124 1125
1126 1127 1128 1129 1130 1131 1132 1133 1134 1135 1136 1137 1138 1139 1140
1141 1142 1143 1144 1145 1146 1147 1148 1149 1150 1151 1152 1153 1154 1155
1156 1157 1158 1159 1160 1161 1162 1163 1164 1165 1166 1167 1168 1169 1170
1171 1172 1173 1174 1175 1176 1177 1178 1179 1180 1181 1182 1183 1184 1185
1186 1187 1188 1189 1190 1191 1192 1193 1194 1195 1196 1197 1198 1199 1200
1201 1202 1203 1204 1205 1206 1207 1208 1209 1210 1211 1212 1213 1214 1215
1216 1217 1218 1219 1220 1221 1222 1223 1224 1225 1226 1227 1228 1229 1230
1231 1232 1233 1234 1235 1236 1237 1238 1239 1240 1241 1242 1243 1244 1245
1246 1247 1248 1249 1250 1251 1252 1253 1254 1255 1256 1257 1258 1259 1260
1261 1262 1263 1264 1265 1266 1267 1268 1269 1270 1271 1272 1273 1274 1275
1276 1277 1278 1279 1280 1281 1282 1283 1284 1285 1286 1287 1288 1289 1290
1291 1292 1293 1294 1295 1296 1297 1298 1299 1300 1301 1302 1303 1304 1305
1306 1307 1308 1309 1310 1311 1312 1313 1314 1315 1316 1317 1318 1319 1320
1321 1322 1323 1324 1325 1326 1327 1328 1329 1330 1331 1332 1333 1334 1335
1336 1337 1338 1339 1340 1341 1342 1343 1344 1345 1346 1347 1348 1349 1350
1351 1352 1353 1354 1355 1356 1357 1358 1359 1360 1361 1362 1363 1364 1365
1366 1367 1368 1369 1370 1371 1372 1373 1374 1375 1376 1377 1378 1379 1380
1381 1382 1383 1384 1385 1386 1387 1388 1389 1390 1391 1392 1393 1394 1395
1396 1397 1398 1399 1400 1401 1402 1403 1404 1405 1406 1407 1408 1409 1410
1411 1412 1413 1414 1415 1416 1417 1418 1419 1420 1421 1422 1423 1424 1425
1426 1427 1428 1429 1430 1431 1432 1433 1434 1435 1436 1437 1438 1439 1440
1441 1442 1443 1444 1445 1446 1447 1448 1449 1450 1451 1452 1453 1454 1455
1456 1457 1458 1459 1460 1461 1462 1463 1464 1465 1466 1467 1468 1469 1470
1471 1472 1473 1474 1475 1476 1477 1478 1479 1480 1481 1482 1483 1484 1485
1486 1487 1488 1489 1490 1491 1492 1493 1494 1495 1496 1497 1498 1499 1500
1501 1502 1503 1504 1505 1506 1507 1508 1509 1510 1511 1512 1513 1514 1515
1516 1517 1518 1519 1520 1521 1522 1523 1524 1525 1526 1527 1528 1529 1530
1531 1532 1533 1534 1535 1536 1537 1538 1539 1540 1541 1542 1543 1544 1545
1546 1547 1548 1549 1550 1551 1552 1553 1554 1555 1556 1557 1558 1559 1560
1561 1562 1563 1564 1565 1566 1567 1568 1569 1570 1571 1572 1573 1574 1575
1576 1577 1578 1579 1580 1581 1582 1583 1584 1585 1586 1587 1588 1589 1590
1591 1592 1593 1594 1595 1596 1597 1598 1599 1600 1601 1602 1603 1604 1605
1606 1607 1608 1609 1610 1611 1612 1613 1614 1615 1616 1617 1618 1619 1620
1621 1622 1623 1624 1625 1626 1627 1628 1629 1630 1631 1632 1633 1634 1635
1636 1637 1638 1639 1640 1641 1642 1643 1644 1645 1646 1647 1648 1649 1650
1651 1652 1653 1654 1655 1656 1657 1658 1659 1660 1661 1662 1663 1664
[ Protein ]
   1    2    3    4    5    6    7    8    9   10   11   12   13   14   15
  16   17   18   19   20   21   22   23   24   25   26   27   28   29   30
  31   32   33   34   35   36   37   38   39   40   41   42   43   44   45
  46   47   48   49   50   51   52   53   54   55   56   57   58   59   60
  61   62   63   64   65   66   67   68   69   70   71   72   73   74   75
  76   77   78   79   80   81   82   83   84   85   86   87   88   89   90
  91   92   93   94   95   96   97   98   99  100  101  102  103  104  105
 106  107  108  109  110  111  112  113  114  115  116  117  118  119  120
 121  122  123  124  125  126  127  128  129  130  131  132  133  134  135
 136  137  138  139  140  141  142  143  144  145  146  147  148  149  150
 151  152  153  154  155  156  157  158  159  160  161  162  163  164  165
 166  167  168  169  170  171  172  173  174  175  176  177  178  179  180
 181  182  183  184  185  186  187  188  189  190  191  192  193  194  195
 196  197  198  199  200  201  202  203  204  205  206  207  208  209  210
 211  212  213  214  215  216  217  218  219  220  221  222  223  224  225
 226  227  228  229  230  231  232  233  234  235  236  237  238  239  240
 241  242  243  244  245  246  247  248  249  250  251  252  253  254  255
 256  257  258  259  260  261  262  263  264  265  266  267  268  269  270
 271  272  273  274  275  276  277  278  279  280  281  282  283  284  285
 286  287  288  289  290  291  292  293  294  295  296  297  298  299  300
 301  302  303  304  305  306  307  308  309  310  311  312  313  314  315
 316  317  318  319  320  321  322  323  324  325  326  327  328  329  330
 331  332  333  334  335  336  337  338  339  340  341  342  343  344  345
 346  347  348  349  350  351  352  353  354  355  356  357  358  359  360
 361  362  363  364  365  366  367  368  369  370  371  372  373  374  375
 376  377  378  379  380  381  382  383  384  385  386  387  388  389  390
 391  392  393  394  395  396  397  398  399  400  401  402  403  404  405
 406  407  408  409  410  411  412  413  414  415  416  417  418  419  420
 421  422  423  424  425  426  427  428  429  430  431  432  433  434  435
 436  437  438  439  440  441  442  443  444  445  446  447  448  449  450
 451  452  453  454  455  456  457  458  459  460  461  462  463  464  465
 466  467  468  469  470  471  472  473  474  475  476  477  478  479  480
 481  482  483  484  485  486  487  488  489  490  491  492  493  494  495
 496  497  498  499  500  501  502  503  504  505  506  507  508  509  510
 511  512  513  514  515  516  517  518  519  520  521  522  523  524  525
 526  527  528  529  530  531  532  533  534  535  536  537  538  539  540
 541  542  543  544  545  546  547  548  549  550  551  552  553  554  555
 556  557  558  559  560  561  562  563  564  565  566  567  568  569  570
 571  572  573  574  575  576  577  578  579  580  581  582  583  584  585
 586  587  588  589  590  591  592  593  594  595  596  597  598  599  600
 601  602  603  604  605  606  607  608  609  610  611  612  613  614  615
 616  617  618  619  620  621  622  623  624  625  626  627  628  629  630
 631  632  633  634  635  636  637  638  639  640  641  642  643  644  645
 646  647  648  649  650  651  652  653  654  655  656  657  658  659  660
 661  662  663  664  665  666  667  668  669  670  671  672  673  674  675
 676  677  678  679  680  681  682  683  684  685  686  687  688  689  690
 691  692  693  694  695  696  697  698  699  700  701  702  703  704  705
 706  707  708  709  710  711  712  713  714  715  716  717  718  719  720
 721  722  723  724  725  726  727  728  729  730  731  732  733  734  735
 736  737  738  739  740  741  742  743  744  745  746  747  748  749  750
 751  752  753  754  755  756  757  758  759  760  761  762  763  764  765
 766  767  768  769  770  771  772  773  774  775  776  777  778  779  780
 781  782  783  784  785  786  787  788  789  790  791  792  793  794  795
 796  797  798  799  800  801  802  803  804  805  806  807  808  809  810
 811  812  813  814  815  816  817  818  819  820  821  822  823  824  825
 826  827  828  829  830  831  832  833  834  835  836  837  838  839  840
 841  842  843  844  845  846  847  848  849  850  851  852  853  854  855
 856  857  858  859  860  861  862  863  864  865  866  867  868  869  870
 871  872  873  874  875  876  877  878  879  880  881  882  883  884  885
 886  887  888  889  890  891  892  893  894  895  896  897  898  899  900
 901  902  903  904  905  906  907  908  909  910  911  912  913  914  915
 916  917  918  919  920  921  922  923  924  925  926  927  928  929  930
 931  932  933  934  935  936  937  938  939  940  941  942  943  944  945
 946  947  948  949  950  951  952  953  954  955  956  957  958  959  960
 961  962  963  964  965  966  967  968  969  970  971  972  973  974  975
 976  977  978  979  980  981  982  983  984  985  986  987  988  989  990
 991  992  993  994  995  996  997  998  999 1000 1001 1002 1003 1004 1005
1006 1007 1008 1009 1010 1011 1012 1013 1014 1015 1016 1017 1018 1019 1020
1021 1022 1023 1024 1025 1026 1027 1028 1029 1030 1031 1032 1033 1034 1035
1036 1037 1038 1039 1040 1041 1042 1043 1044 1045 1046 1047 1048 1049 1050
1051 1052 1053 1054 1055 1056 1057 1058 1059 1060 1061 1062 1063 1064 1065
1066 1067 1068 1069 1070 1071 1072 1073 1074 1075 1076 1077 1078 1079 1080
1081 1082 1083 1084 1085 1086 1087 1088 1089 1090 1091 1092 1093 1094 1095
1096 1097 1098 1099 1100 1101 1102 1103 1104 1105 1106 1107 1108 1109 1110
1111 1112 1113 1114 1115 1116 1117 1118 1119 1120 1121 1122 1123 1124 1125
1126 1127 1128 1129 1130 1131 1132 1133 1134 1135 1136 1137 1138 1139 1140
1141 1142 1143 1144 1145 1146 1147 1148 1149 1150 1151 1152 1153 1154 1155
1156 1157 1158 1159 1160 1161 1162 1163 1164 1165 1166 1167 1168 1169 1170
1171 1172 1173 1174 1175 1176 1177 1178 1179 1180 1181 1182 1183 1184 1185
1186 1187 1188 1189 1190 1191 1192 1193 1194 1195 1196 1197 1198 1199 1200
1201 1202 1203 1204 1205 1206 1207 1208 1209 1210 1211 1212 1213 1214 1215
1216 1217 1218 1219 1220 1221 1222 1223 1224 1225 1226 1227 1228 1229 1230
1231 1232 1233 1234 1235 1236 1237 1238 1239 1240 1241 1242 1243 1244 1245
1246 1247 1248 1249 1250 1251 1252 1253 1254 1255 1256 1257 1258 1259 1260
1261 1262 1263 1264 1265 1266 1267 1268 1269 1270 1271 1272 1273 1274 1275
1276 1277 1278 1279 1280 1281 1282 1283 1284 1285 1286 1287 1288 1289 1290
1291 1292 1293 1294 1295 1296 1297 1298 1299 1300 1301 1302 1303 1304 1305
1306 1307 1308 1309 1310 1311 1312 1313 1314 1315 1316 1317 1318 1319 1320
1321 1322 1323 1324 1325 1326 1327 1328 1329 1330 1331 1332 1333 1334 1335
1336 1337 1338 1339 1340 1341 1342 1343 1344 1345 1346 1347 1348 1349 1350
1351 1352 1353 1354 1355 1356 1357 1358 1359 1360 1361 1362 1363 1364 1365
1366 1367 1368 1369 1370 1371 1372 1373 1374 1375 1376 1377 1378 1379 1380
1381 1382 1383 1384 1385 1386 1387 1388 1389 1390 1391 1392 1393 1394 1395
1396 1397 1398 1399 1400 1401 1402 1403 1404 1405 1406 1407 1408 1409 1410
1411 1412 1413 1414 1415 1416 1417 1418 1419 1420 1421 1422 1423 1424 1425
1426 1427 1428 1429 1430 1431 1432 1433 1434 1435 1436 1437 1438 1439 1440
1441 1442 1443 1444 1445 1446 1447 1448 1449 1450 1451 1452 1453 1454 1455
1456 1457 1458 1459 1460 1461 1462 1463 1464 1465 1466 1467 1468 1469 1470
1471 1472 1473 1474 1475 1476 1477 1478 1479 1480 1481 1482 1483 1484 1485
1486 1487 1488 1489 1490 1491 1492 1493 1494 1495 1496 1497 1498 1499 1500
1501 1502 1503 1504 1505 1506 1507 1508 1509 1510 1511 1512 1513 1514 1515
1516 1517 1518 1519 1520 1521 1522 1523 1524 1525 1526 1527 1528 1529 1530
1531 1532 1533 1534 1535 1536 1537 1538 1539 1540 1541 1542 1543 1544 1545
1546 1547 1548 1549 1550 1551 1552 1553 1554 1555 1556 1557 1558 1559 1560
1561 1562 1563 1564 1565 1566 1567 1568 1569 1570 1571 1572 1573 1574 1575
1576 1577 1578 1579 1580 1581 1582 1583 1584 1585 1586 1587 1588 1589 1590
1591 1592 1593 1594 1595 1596 1597 1598 1599 1600 1601 1602 1603 1604 1605
1606 1607 1608 1609 1610 1611 1612 1613 1614 1615 1616 1617 1618 1619 1620
1621 1622 1623 1624 1625 1626 1627 1628 1629 1630 1631 1632 1633 1634 1635
1636 1637 1638 1639 1640 1641 1642 1643 1644 1645 1646 1647 1648 1649 1650
1651 1652 1653 1654 1655 1656 1657 1658 1659 1660 1661 1662 1663 1664
[ Protein-H ]
   1    5    7   10   11   12   15   16   17   19   21   24   26   27   28
  30   32   35   37   38   39   41   43   46   48   52   56   57   58   60
  62   65   67   71   75   76   77   79   81   84   86   87   89   90   92
  93   94   96   98  101  104  105  106  107  108  109  111  113  116  118
 119  120  122  124  127  130  131  132  135  136  137  139  141  145  146
 147  149  151  154  155  156  158  160  162  163  164  166  168  172  173
 174  176  179  180  181  183  185  188  189  190  191  192  193  195  197
 201  202  203  205  207  210  211  212  214  216  218  219  220  222  224
 227  228  229  231  233  235  236  237  239  241  245  246  247  249  251
 254  255  256  258  260  262  263  264  266  268  271  272  273  275  277
 279  280  281  283  285  287  291  295  296  297  299  301  305  306  307
 309  311  314  315  316  317  318  319  321  323  327  328  329  331  333
 336  337  338  340  342  344  345  346  348  350  353  354  355  357  359
 361  362  363  365  367  371  372  373  375  377  380  381  382  384  386
 388  389  390  392  394  397  398  399  401  403  405  406  407  409  411
 415  416  417  419  421  424  425  426  428  430  432  433  434  436  438
 441  442  443  445  447  449  450  451  453  455  459  460  461  463  465
 469  470  471  473  475  478  479  480  483  484  485  487  489  493  494
 495  497  499  502  503  504  506  508  510  511  512  514  516  519  520
 521  523  525  527  528  529  531  533  537  538  539  541  543  547  548
 549  551  553  556  557  558  559  560  561  563  565  569  570  571  573
 575  578  579  580  583  584  585  587  589  592  593  594  596  598  600
 601  602  604  607  608  609  611  613  616  617  619  621  623  625  627
 628  629  631  633  636  637  638  640  642  644  645  646  648  650  653
 654  656  658  660  662  664  665  666  668  670  673  674  675  678  679
 680  682  684  687  689  693  697  698  699  701  703  706  708  709  711
 712  714  715  716  718  720  723  724  725  726  727  728  730  732  735
 736  737  740  741  742  744  746  749  750  751  754  755  756  758  760
 763  765  766  767  769  771  774  775  776  778  780  782  783  784  786
 788  790  792  796  797  798  800  802  805  807  811  815  816  817  819
 821  824  825  826  828  830  832  833  834  836  838  841  842  843  845
 847  849  850  851  853  855  859  860  861  863  865  868  871  874  877
 881  882  883  885  887  891  892  893  895  897  900  901  902  905  906
 907  909  911  915  916  917  919  921  924  926  927  928  930  932  935
 936  938  940  942  944  946  947  948  950  952  955  956  957  958  959
 960  962  964  967  968  969  970  971  972  974  976  979  981  982  983
 985  987  990  991  992  994  996  998  999 1000 1002 1004 1007 1008 1009
1011 1013 1015 1016 1017 1019 1021 1024 1025 1026 1027 1028 1029 1031 1033
1036 1037 1038 1039 1040 1041 1043 1045 1049 1050 1051 1053 1055 1058 1059
1060 1062 1064 1066 1067 1068 1070 1072 1075 1076 1077 1079 1081 1083 1084
1085 1087 1089 1092 1093 1094 1095 1096 1097 1099 1102 1103 1104 1106 1108
1112 1113 1114 1116 1118 1121 1122 1123 1125 1127 1129 1130 1131 1133 1135
1138 1139 1140 1142 1144 1146 1147 1148 1150 1152 1155 1156 1157 1158 1159
1160 1162 1164 1167 1168 1169 1170 1171 1172 1174 1176 1180 1181 1182 1184
1186 1189 1190 1191 1193 1195 1197 1198 1199 1201 1203 1206 1207 1208 1210
1212 1214 1215 1216 1218 1220 1223 1224 1225 1226 1227 1228 1230 1233 1234
1235 1237 1239 1243 1244 1245 1247 1249 1252 1253 1254 1256 1258 1260 1261
1262 1264 1266 1269 1271 1272 1274 1275 1277 1278 1279 1281 1283 1286 1287
1288 1289 1290 1291 1293 1295 1298 1299 1300 1301 1302 1303 1305 1307 1311
1312 1313 1315 1317 1320 1322 1323 1325 1326 1328 1329 1330 1332 1334 1337
1338 1339 1341 1343 1345 1346 1347 1349 1351 1354 1355 1356 1357 1358 1359
1361 1364 1365 1366 1368 1370 1374 1375 1376 1378 1380 1383 1385 1386 1388
1389 1391 1392 1393 1395 1397 1400 1401 1402 1404 1406 1408 1409 1410 1412
1414 1417 1418 1419 1420 1421 1422 1424 1427 1428 1429 1431 1433 1437 1438
1439 1441 1443 1446 1447 1448 1450 1452 1454 1455 1456 1458 1460 1463 1464
1465 1467 1469 1471 1472 1473 1475 1477 1480 1481 1482 1483 1484 1485 1487
1490 1491 1492 1494 1496 1500 1501 1502 1504 1506 1509 1510 1511 1513 1515
1517 1518 1519 1521 1523 1526 1527 1528 1530 1532 1534 1535 1536 1538 1540
1543 1544 1545 1548 1549 1550 1552 1554 1558 1559 1560 1562 1564 1566 1568
1572 1573 1574 1576 1578 1580 1582 1586 1587 1588 1590 1592 1595 1596 1597
1599 1601 1603 1604 1605 1607 1609 1612 1613 1614 1616 1618 1620 1621 1622
1624 1626 1629 1632 1635 1637 1638 1641 1644 1645 1646 1648 1650 1653 1655
1656 1657 1659 1662 1663 1664
[ C-alpha ]
   5   19   30   41   60   79   96  111  122  139  149  166  176  183  195
 205  222  239  249  266  283  299  309  321  331  348  365  375  392  409
 419  436  453  463  473  487  497  514  531  541  551  563  573  587  604
 611  631  648  668  682  701  718  730  744  758  769  786  800  819  836
 853  863  885  895  909  919  930  950  962  974  985 1002 1019 1031 1043
1053 1070 1087 1099 1106 1116 1133 1150 1162 1174 1184 1201 1218 1230 1237
1247 1264 1281 1293 1305 1315 1332 1349 1361 1368 1378 1395 1412 1424 1431
1441 1458 1475 1487 1494 1504 1521 1538 1552 1562 1576 1590 1607 1624 1648
1659
[ Backbone ]
   1    5   15   17   19   26   28   30   37   39   41   56   58   60   75
  77   79   92   94   96  107  109  111  118  120  122  135  137  139  145
 147  149  162  164  166  172  174  176  179  181  183  191  193  195  201
 203  205  218  220  222  235  237  239  245  247  249  262  264  266  279
 281  283  295  297  299  305  307  309  317  319  321  327  329  331  344
 346  348  361  363  365  371  373  375  388  390  392  405  407  409  415
 417  419  432  434  436  449  451  453  459  461  463  469  471  473  483
 485  487  493  495  497  510  512  514  527  529  531  537  539  541  547
 549  551  559  561  563  569  571  573  583  585  587  600  602  604  607
 609  611  627  629  631  644  646  648  664  666  668  678  680  682  697
 699  701  714  716  718  726  728  730  740  742  744  754  756  758  765
 767  769  782  784  786  796  798  800  815  817  819  832  834  836  849
 851  853  859  861  863  881  883  885  891  893  895  905  907  909  915
 917  919  926  928  930  946  948  950  958  960  962  970  972  974  981
 983  985  998 1000 1002 1015 1017 1019 1027 1029 1031 1039 1041 1043 1049
1051 1053 1066 1068 1070 1083 1085 1087 1095 1097 1099 1102 1104 1106 1112
1114 1116 1129 1131 1133 1146 1148 1150 1158 1160 1162 1170 1172 1174 1180
1182 1184 1197 1199 1201 1214 1216 1218 1226 1228 1230 1233 1235 1237 1243
1245 1247 1260 1262 1264 1277 1279 1281 1289 1291 1293 1301 1303 1305 1311
1313 1315 1328 1330 1332 1345 1347 1349 1357 1359 1361 1364 1366 1368 1374
1376 1378 1391 1393 1395 1408 1410 1412 1420 1422 1424 1427 1429 1431 1437
1439 1441 1454 1456 1458 1471 1473 1475 1483 1485 1487 1490 1492 1494 1500
1502 1504 1517 1519 1521 1534 1536 1538 1548 1550 1552 1558 1560 1562 1572
1574 1576 1586 1588 1590 1603 1605 1607 1620 1622 1624 1644 1646 1648 1655
1657 1659 1662
[ MainChain ]
   1    5   15   16   17   19   26   27   28   30   37   38   39   41   56
  57   58   60   75   76   77   79   92   93   94   96  107  108  109  111
 118  119  120  122  135  136  137  139  145  146  147  149  162  163  164
 166  172  173  174  176  179  180  181  183  191  192  193  195  201  202
 203  205  218  219  220  222  235  236  237  239  245  246  247  249  262
 263  264  266  279  280  281  283  295  296  297  299  305  306  307  309
 317  318  319  321  327  328  329  331  344  345  346  348  361  362  363
 365  371  372  373  375  388  389  390  392  405  406  407  409  415  416
 417  419  432  433  434  436  449  450  451  453  459  460  461  463  469
 470  471  473  483  484  485  487  493  494  495  497  510  511  512  514
 527  528  529  531  537  538  539  541  547  548  549  551  559  560  561
 563  569  570  571  573  583  584  585  587  600  601  602  604  607  608
 609  611  627  628  629  631  644  645  646  648  664  665  666  668  678
 679  680  682  697  698  699  701  714  715  716  718  726  727  728  730
 740  741  742  744  754  755  756  758  765  766  767  769  782  783  784
 786  796  797  798  800  815  816  817  819  832  833  834  836  849  850
 851  853  859  860  861  863  881  882  883  885  891  892  893  895  905
 906  907  909  915  916  917  919  926  927  928  930  946  947  948  950
 958  959  960  962  970  971  972  974  981  982  983  985  998  999 1000
1002 1015 1016 1017 1019 1027 1028 1029 1031 1039 1040 1041 1043 1049 1050
1051 1053 1066 1067 1068 1070 1083 1084 1085 1087 1095 1096 1097 1099 1102
1103 1104 1106 1112 1113 1114 1116 1129 1130 1131 1133 1146 1147 1148 1150
1158 1159 1160 1162 1170 1171 1172 1174 1180 1181 1182 1184 1197 1198 1199
1201 1214 1215 1216 1218 1226 1227 1228 1230 1233 1234 1235 1237 1243 1244
1245 1247 1260 1261 1262 1264 1277 1278 1279 1281 1289 1290 1291 1293 1301
1302 1303 1305 1311 1312 1313 1315 1328 1329 1330 1332 1345 1346 1347 1349
1357 1358 1359 1361 1364 1365 1366 1368 1374 1375 1376 1378 1391 1392 1393
1395 1408 1409 1410 1412 1420 1421 1422 1424 1427 1428 1429 1431 1437 1438
1439 1441 1454 1455 1456 1458 1471 1472 1473 1475 1483 1484 1485 1487 1490
1491 1492 1494 1500 1501 1502 1504 1517 1518 1519 1521 1534 1535 1536 1538
1548 1549 1550 1552 1558 1559 1560 1562 1572 1573 1574 1576 1586 1587 1588
1590 1603 1604 1605 1607 1620 1621 1622 1624 1644 1645 1646 1648 1655 1656
1657 1659 1662
[ MainChain+Cb ]
   1    5    7   15   16   17   19   21   26   27   28   30   32   37   38
  39   41   43   56   57   58   60   62   75   76   77   79   81   92   93
  94   96   98  107  108  109  111  113  118  119  120  122  124  135  136
 137  139  141  145  146  147  149  151  162  163  164  166  168  172  173
 174  176  179  180  181  183  185  191  192  193  195  197  201  202  203
 205  207  218  219  220  222  224  235  236  237  239  241  245  246  247
 249  251  262  263  264  266  268  279  280  281  283  285  295  296  297
 299  301  305  306  307  309  311  317  318  319  321  323  327  328  329
 331  333  344  345  346  348  350  361  362  363  365  367  371  372  373
 375  377  388  389  390  392  394  405  406  407  409  411  415  416  417
 419  421  432  433  434  436  438  449  450  451  453  455  459  460  461
 463  465  469  470  471  473  475  483  484  485  487  489  493  494  495
 497  499  510  511  512  514  516  527  528  529  531  533  537  538  539
 541  543  547  548  549  551  553  559  560  561  563  565  569  570  571
 573  575  583  584  585  587  589  600  601  602  604  607  608  609  611
 613  627  628  629  631  633  644  645  646  648  650  664  665  666  668
 670  678  679  680  682  684  697  698  699  701  703  714  715  716  718
 720  726  727  728  730  732  740  741  742  744  746  754  755  756  758
 760  765  766  767  769  771  782  783  784  786  788  796  797  798  800
 802  815  816  817  819  821  832  833  834  836  838  849  850  851  853
 855  859  860  861  863  865  881  882  883  885  887  891  892  893  895
 897  905  906  907  909  911  915  916  917  919  921  926  927  928  930
 932  946  947  948  950  952  958  959  960  962  964  970  971  972  974
 976  981  982  983  985  987  998  999 1000 1002 1004 1015 1016 1017 1019
1021 1027 1028 1029 1031 1033 1039 1040 1041 1043 1045 1049 1050 1051 1053
1055 1066 1067 1068 1070 1072 1083 1084 1085 1087 1089 1095 1096 1097 1099
1102 1103 1104 1106 1108 1112 1113 1114 1116 1118 1129 1130 1131 1133 1135
1146 1147 1148 1150 1152 1158 1159 1160 1162 1164 1170 1171 1172 1174 1176
1180 1181 1182 1184 1186 1197 1198 1199 1201 1203 1214 1215 1216 1218 1220
1226 1227 1228 1230 1233 1234 1235 1237 1239 1243 1244 1245 1247 1249 1260
1261 1262 1264 1266 1277 1278 1279 1281 1283 1289 1290 1291 1293 1295 1301
1302 1303 1305 1307 1311 1312 1313 1315 1317 1328 1329 1330 1332 1334 1345
1346 1347 1349 1351 1357 1358 1359 1361 1364 1365 1366 1368 1370 1374 1375
1376 1378 1380 1391 1392 1393 1395 1397 1408 1409 1410 1412 1414 1420 1421
1422 1424 1427 1428 1429 1431 1433 1437 1438 1439 1441 1443 1454 1455 1456
1458 1460 1471 1472 1473 1475 1477 1483 1484 1485 1487 1490 1491 1492 1494
1496 1500 1501 1502 1504 1506 1517 1518 1519 1521 1523 1534 1535 1536 1538
1540 1548 1549 1550 1552 1554 1558 1559 1560 1562 1564 1572 1573 1574 1576
1578 1586 1587 1588 1590 1592 1603 1604 1605 1607 1609 1620 1621 1622 1624
1626 1644 1645 1646 1648 1650 1655 1656 1657 1659 1662
[ MainChain+H ]
   1    2    3    4    5   15   16   17   18   19   26   27   28   29   30
  37   38   39   40   41   56   57   58   59   60   75   76   77   78   79
  92   93   94   95   96  107  108  109  110  111  118  119  120  121  122
 135  136  137  138  139  145  146  147  148  149  162  163  164  165  166
 172  173  174  175  176  179  180  181  182  183  191  192  193  194  195
 201  202  203  204  205  218  219  220  221  222  235  236  237  238  239
 245  246  247  248  249  262  263  264  265  266  279  280  281  282  283
 295  296  297  298  299  305  306  307  308  309  317  318  319  320  321
 327  328  329  330  331  344  345  346  347  348  361  362  363  364  365
 371  372  373  374  375  388  389  390  391  392  405  406  407  408  409
 415  416  417  418  419  432  433  434  435  436  449  450  451  452  453
 459  460  461  462  463  469  470  471  472  473  483  484  485  486  487
 493  494  495  496  497  510  511  512  513  514  527  528  529  530  531
 537  538  539  540  541  547  548  549  550  551  559  560  561  562  563
 569  570  571  572  573  583  584  585  586  587  600  601  602  603  604
 607  608  609  610  611  627  628  629  630  631  644  645  646  647  648
 664  665  666  667  668  678  679  680  681  682  697  698  699  700  701
 714  715  716  717  718  726  727  728  729  730  740  741  742  743  744
 754  755  756  757  758  765  766  767  768  769  782  783  784  785  786
 796  797  798  799  800  815  816  817  818  819  832  833  834  835  836
 849  850  851  852  853  859  860  861  862  863  881  882  883  884  885
 891  892  893  894  895  905  906  907  908  909  915  916  917  918  919
 926  927  928  929  930  946  947  948  949  950  958  959  960  961  962
 970  971  972  973  974  981  982  983  984  985  998  999 1000 1001 1002
1015 1016 1017 1018 1019 1027 1028 1029 1030 1031 1039 1040 1041 1042 1043
1049 1050 1051 1052 1053 1066 1067 1068 1069 1070 1083 1084 1085 1086 1087
1095 1096 1097 1098 1099 1102 1103 1104 1105 1106 1112 1113 1114 1115 1116
1129 1130 1131 1132 1133 1146 1147 1148 1149 1150 1158 1159 1160 1161 1162
1170 1171 1172 1173 1174 1180 1181 1182 1183 1184 1197 1198 1199 1200 1201
1214 1215 1216 1217 1218 1226 1227 1228 1229 1230 1233 1234 1235 1236 1237
1243 1244 1245 1246 1247 1260 1261 1262 1263 1264 1277 1278 1279 1280 1281
1289 1290 1291 1292 1293 1301 1302 1303 1304 1305 1311 1312 1313 1314 1315
1328 1329 1330 1331 1332 1345 1346 1347 1348 1349 1357 1358 1359 1360 1361
1364 1365 1366 1367 1368 1374 1375 1376 1377 1378 1391 1392 1393 1394 1395
1408 1409 1410 1411 1412 1420 1421 1422 1423 1424 1427 1428 1429 1430 1431
1437 1438 1439 1440 1441 1454 1455 1456 1457 1458 1471 1472 1473 1474 1475
1483 1484 1485 1486 1487 1490 1491 1492 1493 1494 1500 1501 1502 1503 1504
1517 1518 1519 1520 1521 1534 1535 1536 1537 1538 1548 1549 1550 1551 1552
1558 1559 1560 1561 1562 1572 1573 1574 1575 1576 1586 1587 1588 1589 1590
1603 1604 1605 1606 1607 1620 1621 1622 1623 1624 1644 1645 1646 1647 1648
1655 1656 1657 1658 1659 1662
[ SideChain ]
   6    7    8    9   10   11   12   13   14   20   21   22   23   24   25
  31   32   33   34   35   36   42   43   44   45   46   47   48   49   50
  51   52   53   54   55   61   62   63   64   65   66   67   68   69   70
  71   72   73   74   80   81   82   83   84   85   86   87   88   89   90
  91   97   98   99  100  101  102  103  104  105  106  112  113  114  115
 116  117  123  124  125  126  127  128  129  130  131  132  133  134  140
 141  142  143  144  150  151  152  153  154  155  156  157  158  159  160
 161  167  168  169  170  171  177  178  184  185  186  187  188  189  190
 196  197  198  199  200  206  207  208  209  210  211  212  213  214  215
 216  217  223  224  225  226  227  228  229  230  231  232  233  234  240
 241  242  243  244  250  251  252  253  254  255  256  257  258  259  260
 261  267  268  269  270  271  272  273  274  275  276  277  278  284  285
 286  287  288  289  290  291  292  293  294  300  301  302  303  304  310
 311  312  313  314  315  316  322  323  324  325  326  332  333  334  335
 336  337  338  339  340  341  342  343  349  350  351  352  353  354  355
 356  357  358  359  360  366  367  368  369  370  376  377  378  379  380
 381  382  383  384  385  386  387  393  394  395  396  397  398  399  400
 401  402  403  404  410  411  412  413  414  420  421  422  423  424  425
 426  427  428  429  430  431  437  438  439  440  441  442  443  444  445
 446  447  448  454  455  456  457  458  464  465  466  467  468  474  475
 476  477  478  479  480  481  482  488  489  490  491  492  498  499  500
 501  502  503  504  505  506  507  508  509  515  516  517  518  519  520
 521  522  523  524  525  526  532  533  534  535  536  542  543  544  545
 546  552  553  554  555  556  557  558  564  565  566  567  568  574  575
 576  577  578  579  580  581  582  588  589  590  591  592  593  594  595
 596  597  598  599  605  606  612  613  614  615  616  617  618  619  620
 621  622  623  624  625  626  632  633  634  635  636  637  638  639  640
 641  642  643  649  650  651  652  653  654  655  656  657  658  659  660
 661  662  663  669  670  671  672  673  674  675  676  677  683  684  685
 686  687  688  689  690  691  692  693  694  695  696  702  703  704  705
 706  707  708  709  710  711  712  713  719  720  721  722  723  724  725
 731  732  733  734  735  736  737  738  739  745  746  747  748  749  750
 751  752  753  759  760  761  762  763  764  770  771  772  773  774  775
 776  777  778  779  780  781  787  788  789  790  791  792  793  794  795
 801  802  803  804  805  806  807  808  809  810  811  812  813  814  820
 821  822  823  824  825  826  827  828  829  830  831  837  838  839  840
 841  842  843  844  845  846  847  848  854  855  856  857  858  864  865
 866  867  868  869  870  871  872  873  874  875  876  877  878  879  880
 886  887  888  889  890  896  897  898  899  900  901  902  903  904  910
 911  912  913  914  920  921  922  923  924  925  931  932  933  934  935
 936  937  938  939  940  941  942  943  944  945  951  952  953  954  955
 956  957  963  964  965  966  967  968  969  975  976  977  978  979  980
 986  987  988  989  990  991  992  993  994  995  996  997 1003 1004 1005
1006 1007 1008 1009 1010 1011 1012 1013 1014 1020 1021 1022 1023 1024 1025
1026 1032 1033 1034 1035 1036 1037 1038 1044 1045 1046 1047 1048 1054 1055
1056 1057 1058 1059 1060 1061 1062 1063 1064 1065 1071 1072 1073 1074 1075
1076 1077 1078 1079 1080 1081 1082 1088 1089 1090 1091 1092 1093 1094 1100
1101 1107 1108 1109 1110 1111 1117 1118 1119 1120 1121 1122 1123 1124 1125
1126 1127 1128 1134 1135 1136 1137 1138 1139 1140 1141 1142 1143 1144 1145
1151 1152 1153 1154 1155 1156 1157 1163 1164 1165 1166 1167 1168 1169 1175
1176 1177 1178 1179 1185 1186 1187 1188 1189 1190 1191 1192 1193 1194 1195
1196 1202 1203 1204 1205 1206 1207 1208 1209 1210 1211 1212 1213 1219 1220
1221 1222 1223 1224 1225 1231 1232 1238 1239 1240 1241 1242 1248 1249 1250
1251 1252 1253 1254 1255 1256 1257 1258 1259 1265 1266 1267 1268 1269 1270
1271 1272 1273 1274 1275 1276 1282 1283 1284 1285 1286 1287 1288 1294 1295
1296 1297 1298 1299 1300 1306 1307 1308 1309 1310 1316 1317 1318 1319 1320
1321 1322 1323 1324 1325 1326 1327 1333 1334 1335 1336 1337 1338 1339 1340
1341 1342 1343 1344 1350 1351 1352 1353 1354 1355 1356 1362 1363 1369 1370
1371 1372 1373 1379 1380 1381 1382 1383 1384 1385 1386 1387 1388 1389 1390
1396 1397 1398 1399 1400 1401 1402 1403 1404 1405 1406 1407 1413 1414 1415
1416 1417 1418 1419 1425 1426 1432 1433 1434 1435 1436 1442 1443 1444 1445
1446 1447 1448 1449 1450 1451 1452 1453 1459 1460 1461 1462 1463 1464 1465
1466 1467 1468 1469 1470 1476 1477 1478 1479 1480 1481 1482 1488 1489 1495
1496 1497 1498 1499 1505 1506 1507 1508 1509 1510 1511 1512 1513 1514 1515
1516 1522 1523 1524 1525 1526 1527 1528 1529 1530 1531 1532 1533 1539 1540
1541 1542 1543 1544 1545 1546 1547 1553 1554 1555 1556 1557 1563 1564 1565
1566 1567 1568 1569 1570 1571 1577 1578 1579 1580 1581 1582 1583 1584 1585
1591 1592 1593 1594 1595 1596 1597 1598 1599 1600 1601 1602 1608 1609 1610
1611 1612 1613 1614 1615 1616 1617 1618 1619 1625 1626 1627 1628 1629 1630
1631 1632 1633 1634 1635 1636 1637 1638 1639 1640 1641 1642 1643 1649 1650
1651 1652 1653 1654 1660 1661 1663 1664
[ SideChain-H ]
   7   10   11   12   21   24   32   35   43   46   48   52   62   65   67
  71   81   84   86   87   89   90   98  101  104  105  106  113  116  124
 127  130  131  132  141  151  154  155  156  158  160  168  185  188  189
 190  197  207  210  211  212  214  216  224  227  228  229  231  233  241
 251  254  255  256  258  260  268  271  272  273  275  277  285  287  291
 301  311  314  315  316  323  333  336  337  338  340  342  350  353  354
 355  357  359  367  377  380  381  382  384  386  394  397  398  399  401
 403  411  421  424  425  426  428  430  438  441  442  443  445  447  455
 465  475  478  479  480  489  499  502  503  504  506  508  516  519  520
 521  523  525  533  543  553  556  557  558  565  575  578  579  580  589
 592  593  594  596  598  613  616  617  619  621  623  625  633  636  637
 638  640  642  650  653  654  656  658  660  662  670  673  674  675  684
 687  689  693  703  706  708  709  711  712  720  723  724  725  732  735
 736  737  746  749  750  751  760  763  771  774  775  776  778  780  788
 790  792  802  805  807  811  821  824  825  826  828  830  838  841  842
 843  845  847  855  865  868  871  874  877  887  897  900  901  902  911
 921  924  932  935  936  938  940  942  944  952  955  956  957  964  967
 968  969  976  979  987  990  991  992  994  996 1004 1007 1008 1009 1011
1013 1021 1024 1025 1026 1033 1036 1037 1038 1045 1055 1058 1059 1060 1062
1064 1072 1075 1076 1077 1079 1081 1089 1092 1093 1094 1108 1118 1121 1122
1123 1125 1127 1135 1138 1139 1140 1142 1144 1152 1155 1156 1157 1164 1167
1168 1169 1176 1186 1189 1190 1191 1193 1195 1203 1206 1207 1208 1210 1212
1220 1223 1224 1225 1239 1249 1252 1253 1254 1256 1258 1266 1269 1271 1272
1274 1275 1283 1286 1287 1288 1295 1298 1299 1300 1307 1317 1320 1322 1323
1325 1326 1334 1337 1338 1339 1341 1343 1351 1354 1355 1356 1370 1380 1383
1385 1386 1388 1389 1397 1400 1401 1402 1404 1406 1414 1417 1418 1419 1433
1443 1446 1447 1448 1450 1452 1460 1463 1464 1465 1467 1469 1477 1480 1481
1482 1496 1506 1509 1510 1511 1513 1515 1523 1526 1527 1528 1530 1532 1540
1543 1544 1545 1554 1564 1566 1568 1578 1580 1582 1592 1595 1596 1597 1599
1601 1609 1612 1613 1614 1616 1618 1626 1629 1632 1635 1637 1638 1641 1650
1653 1663 1664
[ H1 ]
   1    2    3    4    5    6    7    8    9   10   11   12   13   14   15
  16   17   18   19   20   21   22   23   24   25   26   27   28   29   30
  31   32   33   34   35   36   37   38   39   40   41   42   43   44   45
  46   47   48   49   50   51   52   53   54   55   56   57   58   59   60
  61   62   63   64   65   66   67   68   69   70   71   72   73   74   75
  76   77   78   79   80   81   82   83   84   85   86   87   88   89   90
  91   92   93   94   95   96   97   98   99  100  101  102  103  104  105
 106  107  108  109  110  111  112  113  114  115  116  117  118  119  120
 121  122  123  124  125  126  127  128  129  130  131  132  133  134  135
 136  137  138  139  140  141  142  143  144  145  146  147  148  149  150
 151  152  153  154  155  156  157  158  159  160  161  162  163  164  165
 166  167  168  169  170  171  172  173  174  175  176  177  178  179  180
 181  182  183  184  185  186  187  188  189  190  191  192  193  194  195
 196  197  198  199  200  201  202  203  204  205  206  207  208  209  210
 211  212  213  214  215  216  217  218  219  220  221  222  223  224  225
 226  227  228  229  230  231  232  233  234  235  236  237  238  239  240
 241  242  243  244  245  246  247  248  249  250  251  252  253  254  255
 256  257  258  259  260  261  262  263  264  265  266  267  268  269  270
 271  272  273  274  275  276  277  278  279  280  281  282  283  284  285
 286  287  288  289  290  291  292  293  294  295  296  297  298  299  300
 301  302  303  304  305  306  307  308  309  310  311  312  313  314  315
 316  317  318  319  320  321  322  323  324  325  326  327  328  329  330
 331  332  333  334  335  336  337  338  339  340  341  342  343  344  345
 346  347  348  349  350  351  352  353  354  355  356  357  358  359  360
 361  362  363  364  365  366  367  368  369  370  371  372  373  374  375
 376  377  378  379  380  381  382  383  384  385  386  387  388  389  390
 391  392  393  394  395  396  397  398  399  400  401  402  403  404  405
 406  407  408  409  410  411  412  413  414  415  416  417  418  419  420
 421  422  423  424  425  426  427  428  429  430  431  432  433  434  435
 436  437  438  439  440  441  442  443  444  445  446  447  448  449  450
 451  452  453  454  455  456  457  458  459  460  461  462  463  464  465
 466  467  468  469  470  471  472  473  474  475  476  477  478  479  480
 481  482  483  484  485  486  487  488  489  490  491  492  493  494  495
 496  497  498  499  500  501  502  503  504  505  506  507  508  509  510
 511  512  513  514  515  516  517  518  519  520  521  522  523  524  525
 526  527  528  529  530  531  532  533  534  535  536  537  538  539  540
 541  542  543  544  545  546  547  548  549  550  551  552  553  554  555
 556  557  558  559  560
[ H2 ]
 646  647  648  649  650  651  652  653  654  655  656  657  658  659  660
 661  662  663  664  665  666  667  668  669  670  671  672  673  674  675
 676  677  678  679  680  681  682  683  684  685  686  687  688  689  690
 691  692  693  694  695  696  697  698  699  700  701  702  703  704  705
 706  707  708  709  710  711  712  713  714  715  716  717  718  719  720
 721  722  723  724  725  726  727  728  729  730  731  732  733  734  735
 736  737  738  739  740  741  742  743  744  745  746  747  748  749  750
 751  752  753  754  755  756  757  758  759  760  761  762  763  764  765
 766  767  768  769  770  771  772  773  774  775  776  777  778  779  780
 781  782  783  784  785  786  787  788  789  790  791  792  793  794  795
 796  797  798  799  800  801  802  803  804  805  806  807  808  809  810
 811  812  813  814  815  816  817  818  819  820  821  822  823  824  825
 826  827  828  829  830  831  832  833  834  835  836  837  838  839  840
 841  842  843  844  845  846  847  848  849  850  851  852  853  854  855
 856  857  858  859  860  861  862  863  864  865  866  867  868  869  870
 871  872  873  874  875  876  877  878  879  880  881  882  883  884  885
 886  887  888  889  890  891  892  893  894  895  896  897  898  899  900
 901  902  903  904  905  906  907  908  909  910  911  912  913  914  915
 916  917  918  919  920  921  922  923  924  925  926  927  928  929  930
 931  932  933  934  935  936  937  938  939  940  941  942  943  944  945
 946  947  948  949  950  951  952  953  954  955  956  957  958  959  960
 961  962  963  964  965  966  967  968  969  970  971  972  973  974  975
 976  977  978  979  980  981  982  983  984  985  986  987  988  989  990
 991  992  993  994  995  996  997  998  999 1000 1001 1002 1003 1004 1005
1006 1007 1008 1009 1010 1011 1012 1013 1014 1015 1016 1017 1018 1019 1020
1021 1022 1023 1024 1025 1026 1027 1028 1029 1030 1031 1032 1033 1034 1035
1036 1037 1038 1039 1040 1041 1042 1043 1044 1045 1046 1047 1048 1049 1050
1051 1052 1053 1054 1055 1056 1057 1058 1059 1060 1061 1062 1063 1064 1065
1066 1067 1068 1069 1070 1071 1072 1073 1074 1075 1076 1077 1078 1079 1080
1081 1082 1083 1084 1085 1086 1087 1088 1089 1090 1091 1092 1093 1094 1095
1096 1097 1098 1099 1100 1101 1102 1103 1104 1105 1106 1107 1108 1109 1110
1111 1112 1113
[ H3 ]
1172 1173 1174 1175 1176 1177 1178 1179 1180 1181 1182 1183 1184 1185 1186
1187 1188 1189 1190 1191 1192 1193 1194 1195 1196 1197 1198 1199 1200 1201
1202 1203 1204 1205 1206 1207 1208 1209 1210 1211 1212 1213 1214 1215 1216
1217 1218 1219 1220 1221 1222 1223 1224 1225 1226 1227 1228 1229 1230 1231
1232 1233 1234 1235 1236 1237 1238 1239 1240 1241 1242 1243 1244 1245 1246
1247 1248 1249 1250 1251 1252 1253 1254 1255 1256 1257 1258 1259 1260 1261
1262 1263 1264 1265 1266 1267 1268 1269 1270 1271 1272 1273 1274 1275 1276
1277 1278 1279 1280 1281 1282 1283 1284 1285 1286 1287 1288 1289 1290 1291
1292 1293 1294 1295 1296 1297 1298 1299 1300 1301 1302 1303 1304 1305 1306
1307 1308 1309 1310 1311 1312 1313 1314 1315 1316 1317 1318 1319 1320 1321
1322 1323 1324 1325 1326 1327 1328 1329 1330 1331 1332 1333 1334 1335 1336
1337 1338 1339 1340 1341 1342 1343 1344 1345 1346 1347 1348 1349 1350 1351
1352 1353 1354 1355 1356 1357 1358 1359 1360 1361 1362 1363 1364 1365 1366
1367 1368 1369 1370 1371 1372 1373 1374 1375 1376 1377 1378 1379 1380 1381
1382 1383 1384 1385 1386 1387 1388 1389 1390 1391 1392 1393 1394 1395 1396
1397 1398 1399 1400 1401 1402 1403 1404 1405 1406 1407 1408 1409 1410 1411
1412 1413 1414 1415 1416 1417 1418 1419 1420 1421 1422 1423 1424 1425 1426
1427 1428 1429 1430 1431 1432 1433 1434 1435 1436 1437 1438 1439 1440 1441
1442 1443 1444 1445 1446 1447 1448 1449 1450 1451 1452 1453 1454 1455 1456
1457 1458 1459 1460 1461 1462 1463 1464 1465 1466 1467 1468 1469 1470 1471
1472 1473 1474 1475 1476 1477 1478 1479 1480 1481 1482 1483 1484 1485 1486
1487 1488 1489 1490 1491 1492 1493 1494 1495 1496 1497 1498 1499 1500 1501
1502 1503 1504 1505 1506 1507 1508 1509 1510 1511 1512 1513 1514 1515 1516
1517 1518 1519 1520 1521 1522 1523 1524 1525 1526 1527 1528 1529 1530 1531
1532 1533 1534 1535 1536 1537 1538 1539 1540 1541 1542 1543 1544 1545 1546
1547 1548 1549 1550 1551 1552 1553 1554 1555 1556 1557 1558 1559 1560 1561
1562 1563 1564 1565 1566 1567 1568 1569 1570 1571 1572 1573 1574 1575 1576
1577 1578 1579 1580 1581 1582 1583 1584 1585 1586 1587 1588 1589 1590 1591
1592 1593 1594 1595 1596 1597 1598 1599 1600 1601 1602 1603 1604 1605 1606
1607 1608 1609 1610 1611 1612 1613 1614 1615 1616 1617 1618 1619 1620 1621
1622 1623 1624 1625 1626 1627 1628 1629 1630 1631 1632 1633 1634 1635 1636
1637 1638 1639 1640 1641 1642 1643 1644 1645 1646 1647 1648 1649 1650 1651
1652 1653 1654 1655 1656 1657 1658 1659 1660 1661 1662 1663 1664
