;
;	File 'topol.top' was generated
;	By user: dalal (2003)
;	On host: magnesium
;	At date: Sun Oct  4 00:19:03 2020
;
;	This is a standalone topology file
;
;	Created by:
;	                    :-) GROMACS - gmx pdb2gmx, 2019.1 (-:
;	
;	Executable:   /programs/x86_64-linux/gromacs/2019.1/bin//gmx
;	Data prefix:  /programs/x86_64-linux/gromacs/2019.1
;	Working dir:  /home/dalal/Desktop/2OAY/2
;	Command line:
;	  gmx pdb2gmx -f 2_clean.pdb -o 2_processed.gro -water spce
;	Force field was read from the standard GROMACS share directory.
;

; Include forcefield parameters
#include "charmm27.ff/forcefield.itp"

; Include chain topologies
#include "topol_Protein_chain_A.itp"
#include "topol_Protein_chain_B.itp"

; Include water topology
#include "charmm27.ff/spce.itp"

#ifdef POSRES_WATER
; Position restraint for each water oxygen
[ position_restraints ]
;  i funct       fcx        fcy        fcz
   1    1       1000       1000       1000
#endif

; Include topology for ions
#include "charmm27.ff/ions.itp"

[ system ]
; Name
Protein in water

[ molecules ]
; Compound        #mols
Protein_chain_A     1
Protein_chain_B     1
SOL         39516
NA               106
CL               108
